 Gaussian 16, Revision B.01,
 Gaussian 16:  ES64L-G16RevB.01 20-Dec-2017

 -----------------------------------------------
 #p td=(nstates=5) cam-b3lyp/def2tzvp scrf=check
 -----------------------------------------------

 ----------------------------------
 Molecule 5 excited states def2tzvp
 ----------------------------------
 Symbolic Z-matrix:
 Charge =  0 Multiplicity = 1

                         Standard orientation:
 ---------------------------------------------------------------------
 Center     Atomic      Atomic             Coordinates (Angstroms)
 Number     Number       Type             X           Y           Z
 ---------------------------------------------------------------------
      1          6           0        0.000000    0.000000   -0.524410
      2          1           0        0.938499   -0.000000   -1.108649
      3          1           0       -0.938499    0.000000   -1.108649
      4          8           0       -0.000000   -0.000000    0.670469
 ---------------------------------------------------------------------

 SCF Done:  E(RCAM-B3LYP) =  -114.503858921     A.U. after   11 cycles

 Excitation energies and oscillator strengths:

 Excited State   1:      Singlet-A2     4.0228 eV  308.20 nm  f=0.0000  <S**2>=0.000
       8 ->  9         0.70431
 This state for optimization and/or second-order correction.
 Total Energy, E(TD-HF/TD-DFT) =  -114.356022450
 Copying the excited state density for this state as the 1-particle RhoCI density.

 Excited State   2:      Singlet-B1     8.2844 eV  149.66 nm  f=0.0910  <S**2>=0.000
       8 -> 10         0.68841
       8 -> 11         0.15371

 Excited State   3:      Singlet-B2     9.2620 eV  133.86 nm  f=0.0002  <S**2>=0.000
       6 ->  9         0.70327

 Excited State   4:      Singlet-B1     9.2769 eV  133.65 nm  f=0.0530  <S**2>=0.000
       8 -> 10        -0.15380
       8 -> 11         0.68853

 Excited State   5:      Singlet-A1     9.5862 eV  129.34 nm  f=0.0098  <S**2>=0.000
       7 ->  9         0.55134
       8 -> 12         0.42702

 The electronic state is 1-A1.
 Alpha  occ. eigenvalues --  -19.22017 -10.34809  -1.15308  -0.71629  -0.57728
 Alpha  occ. eigenvalues --   -0.53070  -0.47843  -0.34208
 Alpha virt. eigenvalues --   -0.00054   0.09516   0.14735   0.15260   0.24476
 Alpha virt. eigenvalues --    0.25090   0.30006   0.44208   0.46982   0.49582
 Alpha virt. eigenvalues --    0.55171   0.55423   0.63905   0.65146   0.76503

 Mulliken charges:
               1
     1  C    0.048047
     2  H    0.090212
     3  H    0.090212
     4  O   -0.228471
 Sum of Mulliken charges =  -0.00000

 Dipole moment (field-independent basis, Debye):
    X=              0.0000    Y=              0.0000    Z=             -2.4010  Tot=              2.4010
 Quadrupole moment (field-independent basis, Debye-Ang):
   XX=            -11.6742   YY=            -11.7198   ZZ=            -12.2999
   XY=             -0.0000   XZ=             -0.0000   YZ=             -0.0000

 Normal termination of Gaussian 16 at Mon Apr 11 03:06:23 2022.
